version 3
run Broadcast-0-20251030-05:43:39-18400
attr configname Broadcast
attr datetime 20251030-05:43:39
attr datetimef 20251030-054339
attr experiment Broadcast
attr inifile omnetpp.ini
attr iterationvars ""
attr iterationvarsd ""
attr iterationvarsf ""
attr measurement ""
attr network MeshChatNetwork
attr processid 18400
attr repetition 0
attr replication #0
attr resultdir results
attr runnumber 0
attr seedset 0
config description "Emergency broadcast test"
config *.node[0].broadcastInterval 10s
config *.node[0].enableBroadcast true
config *.node[2].broadcastInterval 15s
config *.node[2].enableBroadcast true
config network MeshChatNetwork
config ned-path .;../src
config sim-time-limit 30s
config *.node[*].packetLossRate 0.05
config *.node[*].maxMessages 15
config *.node[*].initialTTL 7
config *.node[*].messageSendInterval exponential(5s)
config *.node[*].displayStrings true
config *.node[0..5].enableMobility true
config *.node[0..5].mobilityUpdateInterval 2s
config *.node[0..5].mobilitySpeed 10mps
config *.node[0..5].areaWidth 800m
config *.node[0..5].areaHeight 600m
config *.node[6..11].enableMobility false

vector 0 MeshChatNetwork.node[0] messagesSent ETV
vector 1 MeshChatNetwork.node[0] messagesDelivered ETV
vector 2 MeshChatNetwork.node[0] messagesDropped ETV
vector 3 MeshChatNetwork.node[0] deliveryRatio ETV
vector 4 MeshChatNetwork.node[1] messagesSent ETV
vector 5 MeshChatNetwork.node[1] messagesDelivered ETV
vector 6 MeshChatNetwork.node[1] messagesDropped ETV
vector 7 MeshChatNetwork.node[1] deliveryRatio ETV
vector 8 MeshChatNetwork.node[2] messagesSent ETV
vector 9 MeshChatNetwork.node[2] messagesDelivered ETV
vector 10 MeshChatNetwork.node[2] messagesDropped ETV
vector 11 MeshChatNetwork.node[2] deliveryRatio ETV
vector 12 MeshChatNetwork.node[3] messagesSent ETV
vector 13 MeshChatNetwork.node[3] messagesDelivered ETV
vector 14 MeshChatNetwork.node[3] messagesDropped ETV
vector 15 MeshChatNetwork.node[3] deliveryRatio ETV
vector 16 MeshChatNetwork.node[4] messagesSent ETV
vector 17 MeshChatNetwork.node[4] messagesDelivered ETV
vector 18 MeshChatNetwork.node[4] messagesDropped ETV
vector 19 MeshChatNetwork.node[4] deliveryRatio ETV
vector 20 MeshChatNetwork.node[5] messagesSent ETV
vector 21 MeshChatNetwork.node[5] messagesDelivered ETV
vector 22 MeshChatNetwork.node[5] messagesDropped ETV
vector 23 MeshChatNetwork.node[5] deliveryRatio ETV
vector 24 MeshChatNetwork.node[6] messagesSent ETV
vector 25 MeshChatNetwork.node[6] messagesDelivered ETV
vector 26 MeshChatNetwork.node[6] messagesDropped ETV
vector 27 MeshChatNetwork.node[6] deliveryRatio ETV
vector 28 MeshChatNetwork.node[7] messagesSent ETV
vector 29 MeshChatNetwork.node[7] messagesDelivered ETV
vector 30 MeshChatNetwork.node[7] messagesDropped ETV
vector 31 MeshChatNetwork.node[7] deliveryRatio ETV
vector 32 MeshChatNetwork.node[8] messagesSent ETV
vector 33 MeshChatNetwork.node[8] messagesDelivered ETV
vector 34 MeshChatNetwork.node[8] messagesDropped ETV
vector 35 MeshChatNetwork.node[8] deliveryRatio ETV
vector 36 MeshChatNetwork.node[9] messagesSent ETV
vector 37 MeshChatNetwork.node[9] messagesDelivered ETV
vector 38 MeshChatNetwork.node[9] messagesDropped ETV
vector 39 MeshChatNetwork.node[9] deliveryRatio ETV
vector 40 MeshChatNetwork.node[10] messagesSent ETV
vector 41 MeshChatNetwork.node[10] messagesDelivered ETV
vector 42 MeshChatNetwork.node[10] messagesDropped ETV
vector 43 MeshChatNetwork.node[10] deliveryRatio ETV
vector 44 MeshChatNetwork.node[11] messagesSent ETV
vector 45 MeshChatNetwork.node[11] messagesDelivered ETV
vector 46 MeshChatNetwork.node[11] messagesDropped ETV
vector 47 MeshChatNetwork.node[11] deliveryRatio ETV
0	52	0.5	5
0	3159	1	99
0	4317	1.5	151
0	4347	2	151
0	5333	2.5	201
0	5345	3	201
0	5357	3.5	201
0	5375	4	201
0	5387	4.5	201
0	5400	5	201
0	5411	5.5	201
0	5428	6	201
0	5439	6.5	201
0	5450	7	201
0	5461	7.5	201
0	5477	8	201
0	5488	8.5	201
0	5499	9	201
0	5510	9.5	201
0	5526	10	201
0	5538	10.5	201
0	5549	11	201
0	5560	11.5	201
0	5576	12	201
0	5587	12.5	201
0	5599	13	201
0	5610	13.5	201
0	5626	14	201
0	5638	14.5	201
0	5650	15	201
0	5660	15.5	201
0	5675	16	201
0	5685	16.5	201
0	5695	17	201
0	5705	17.5	201
0	5720	18	201
0	5730	18.5	201
0	5740	19	201
0	5750	19.5	201
0	5766	20	201
0	5776	20.5	201
0	5786	21	201
0	5796	21.5	201
0	5811	22	201
0	5821	22.5	201
0	5831	23	201
0	5841	23.5	201
0	5856	24	201
0	5866	24.5	201
0	5876	25	201
0	5886	25.5	201
0	5901	26	201
0	5911	26.5	201
0	5921	27	201
0	5932	27.5	201
0	5947	28	201
0	5957	28.5	201
0	5967	29	201
0	5977	29.5	201
0	5993	30	201
1	52	0.5	0
1	3159	1	0
1	4317	1.5	0
1	4347	2	0
1	5333	2.5	0
1	5345	3	0
1	5357	3.5	0
1	5375	4	0
1	5387	4.5	0
1	5400	5	0
1	5411	5.5	0
1	5428	6	0
1	5439	6.5	0
1	5450	7	0
1	5461	7.5	0
1	5477	8	0
1	5488	8.5	0
1	5499	9	0
1	5510	9.5	0
1	5526	10	0
1	5538	10.5	0
1	5549	11	0
1	5560	11.5	0
1	5576	12	0
1	5587	12.5	0
1	5599	13	0
1	5610	13.5	0
1	5626	14	0
1	5638	14.5	0
1	5650	15	0
1	5660	15.5	0
1	5675	16	0
1	5685	16.5	0
1	5695	17	0
1	5705	17.5	0
1	5720	18	0
1	5730	18.5	0
1	5740	19	0
1	5750	19.5	0
1	5766	20	0
1	5776	20.5	0
1	5786	21	0
1	5796	21.5	0
1	5811	22	0
1	5821	22.5	0
1	5831	23	0
1	5841	23.5	0
1	5856	24	0
1	5866	24.5	0
1	5876	25	0
1	5886	25.5	0
1	5901	26	0
1	5911	26.5	0
1	5921	27	0
1	5932	27.5	0
1	5947	28	0
1	5957	28.5	0
1	5967	29	0
1	5977	29.5	0
1	5993	30	0
2	52	0.5	0
2	3159	1	6
2	4317	1.5	9
2	4347	2	9
2	5333	2.5	14
2	5345	3	14
2	5357	3.5	14
2	5375	4	14
2	5387	4.5	14
2	5400	5	14
2	5411	5.5	14
2	5428	6	14
2	5439	6.5	14
2	5450	7	14
2	5461	7.5	14
2	5477	8	14
2	5488	8.5	14
2	5499	9	14
2	5510	9.5	14
2	5526	10	14
2	5538	10.5	14
2	5549	11	14
2	5560	11.5	14
2	5576	12	14
2	5587	12.5	14
2	5599	13	14
2	5610	13.5	14
2	5626	14	14
2	5638	14.5	14
2	5650	15	14
2	5660	15.5	14
2	5675	16	14
2	5685	16.5	14
2	5695	17	14
2	5705	17.5	14
2	5720	18	14
2	5730	18.5	14
2	5740	19	14
2	5750	19.5	14
2	5766	20	14
2	5776	20.5	14
2	5786	21	14
2	5796	21.5	14
2	5811	22	14
2	5821	22.5	14
2	5831	23	14
2	5841	23.5	14
2	5856	24	14
2	5866	24.5	14
2	5876	25	14
2	5886	25.5	14
2	5901	26	14
2	5911	26.5	14
2	5921	27	14
2	5932	27.5	14
2	5947	28	14
2	5957	28.5	14
2	5967	29	14
2	5977	29.5	14
2	5993	30	14
3	52	0.5	0
3	3159	1	0
3	4317	1.5	0
3	4347	2	0
3	5333	2.5	0
3	5345	3	0
3	5357	3.5	0
3	5375	4	0
3	5387	4.5	0
3	5400	5	0
3	5411	5.5	0
3	5428	6	0
3	5439	6.5	0
3	5450	7	0
3	5461	7.5	0
3	5477	8	0
3	5488	8.5	0
3	5499	9	0
3	5510	9.5	0
3	5526	10	0
3	5538	10.5	0
3	5549	11	0
3	5560	11.5	0
3	5576	12	0
3	5587	12.5	0
3	5599	13	0
3	5610	13.5	0
3	5626	14	0
3	5638	14.5	0
3	5650	15	0
3	5660	15.5	0
3	5675	16	0
3	5685	16.5	0
3	5695	17	0
3	5705	17.5	0
3	5720	18	0
3	5730	18.5	0
3	5740	19	0
3	5750	19.5	0
3	5766	20	0
3	5776	20.5	0
3	5786	21	0
3	5796	21.5	0
3	5811	22	0
3	5821	22.5	0
3	5831	23	0
3	5841	23.5	0
3	5856	24	0
3	5866	24.5	0
3	5876	25	0
3	5886	25.5	0
3	5901	26	0
3	5911	26.5	0
3	5921	27	0
3	5932	27.5	0
3	5947	28	0
3	5957	28.5	0
3	5967	29	0
3	5977	29.5	0
3	5993	30	0
4	54	0.5	3
4	3160	1	82
4	4318	1.5	111
4	4348	2	111
4	5334	2.5	133
4	5346	3	133
4	5358	3.5	133
4	5376	4	133
4	5388	4.5	133
4	5401	5	133
4	5412	5.5	133
4	5429	6	133
4	5440	6.5	133
4	5451	7	133
4	5462	7.5	133
4	5478	8	133
4	5489	8.5	133
4	5500	9	133
4	5511	9.5	133
4	5527	10	133
4	5539	10.5	133
4	5550	11	133
4	5561	11.5	133
4	5577	12	133
4	5588	12.5	133
4	5600	13	133
4	5611	13.5	133
4	5627	14	133
4	5639	14.5	133
4	5651	15	133
4	5661	15.5	133
4	5676	16	133
4	5686	16.5	133
4	5696	17	133
4	5706	17.5	133
4	5721	18	133
4	5731	18.5	133
4	5741	19	133
4	5751	19.5	133
4	5767	20	133
4	5777	20.5	133
4	5787	21	133
4	5797	21.5	133
4	5812	22	133
4	5822	22.5	133
4	5832	23	133
4	5842	23.5	133
4	5857	24	133
4	5867	24.5	133
4	5877	25	133
4	5887	25.5	133
4	5902	26	133
4	5912	26.5	133
4	5922	27	133
4	5933	27.5	133
4	5948	28	133
4	5958	28.5	133
4	5968	29	133
4	5978	29.5	133
4	5994	30	133
5	54	0.5	0
5	3160	1	0
5	4318	1.5	0
5	4348	2	0
5	5334	2.5	0
5	5346	3	0
5	5358	3.5	0
5	5376	4	0
5	5388	4.5	0
5	5401	5	0
5	5412	5.5	0
5	5429	6	0
5	5440	6.5	0
5	5451	7	0
5	5462	7.5	0
5	5478	8	0
5	5489	8.5	0
5	5500	9	0
5	5511	9.5	0
5	5527	10	0
5	5539	10.5	0
5	5550	11	0
5	5561	11.5	0
5	5577	12	0
5	5588	12.5	0
5	5600	13	0
5	5611	13.5	0
5	5627	14	0
5	5639	14.5	0
5	5651	15	0
5	5661	15.5	0
5	5676	16	0
5	5686	16.5	0
5	5696	17	0
5	5706	17.5	0
5	5721	18	0
5	5731	18.5	0
5	5741	19	0
5	5751	19.5	0
5	5767	20	0
5	5777	20.5	0
5	5787	21	0
5	5797	21.5	0
5	5812	22	0
5	5822	22.5	0
5	5832	23	0
5	5842	23.5	0
5	5857	24	0
5	5867	24.5	0
5	5877	25	0
5	5887	25.5	0
5	5902	26	0
5	5912	26.5	0
5	5922	27	0
5	5933	27.5	0
5	5948	28	0
5	5958	28.5	0
5	5968	29	0
5	5978	29.5	0
5	5994	30	0
6	54	0.5	0
6	3160	1	5
6	4318	1.5	9
6	4348	2	9
6	5334	2.5	9
6	5346	3	9
6	5358	3.5	9
6	5376	4	9
6	5388	4.5	9
6	5401	5	9
6	5412	5.5	9
6	5429	6	9
6	5440	6.5	9
6	5451	7	9
6	5462	7.5	9
6	5478	8	9
6	5489	8.5	9
6	5500	9	9
6	5511	9.5	9
6	5527	10	9
6	5539	10.5	9
6	5550	11	9
6	5561	11.5	9
6	5577	12	9
6	5588	12.5	9
6	5600	13	9
6	5611	13.5	9
6	5627	14	9
6	5639	14.5	9
6	5651	15	9
6	5661	15.5	9
6	5676	16	9
6	5686	16.5	9
6	5696	17	9
6	5706	17.5	9
6	5721	18	9
6	5731	18.5	9
6	5741	19	9
6	5751	19.5	9
6	5767	20	9
6	5777	20.5	9
6	5787	21	9
6	5797	21.5	9
6	5812	22	9
6	5822	22.5	9
6	5832	23	9
6	5842	23.5	9
6	5857	24	9
6	5867	24.5	9
6	5877	25	9
6	5887	25.5	9
6	5902	26	9
6	5912	26.5	9
6	5922	27	9
6	5933	27.5	9
6	5948	28	9
6	5958	28.5	9
6	5968	29	9
6	5978	29.5	9
6	5994	30	9
7	54	0.5	0
7	3160	1	0
7	4318	1.5	0
7	4348	2	0
7	5334	2.5	0
7	5346	3	0
7	5358	3.5	0
7	5376	4	0
7	5388	4.5	0
7	5401	5	0
7	5412	5.5	0
7	5429	6	0
7	5440	6.5	0
7	5451	7	0
7	5462	7.5	0
7	5478	8	0
7	5489	8.5	0
7	5500	9	0
7	5511	9.5	0
7	5527	10	0
7	5539	10.5	0
7	5550	11	0
7	5561	11.5	0
7	5577	12	0
7	5588	12.5	0
7	5600	13	0
7	5611	13.5	0
7	5627	14	0
7	5639	14.5	0
7	5651	15	0
7	5661	15.5	0
7	5676	16	0
7	5686	16.5	0
7	5696	17	0
7	5706	17.5	0
7	5721	18	0
7	5731	18.5	0
7	5741	19	0
7	5751	19.5	0
7	5767	20	0
7	5777	20.5	0
7	5787	21	0
7	5797	21.5	0
7	5812	22	0
7	5822	22.5	0
7	5832	23	0
7	5842	23.5	0
7	5857	24	0
7	5867	24.5	0
7	5877	25	0
7	5887	25.5	0
7	5902	26	0
7	5912	26.5	0
7	5922	27	0
7	5933	27.5	0
7	5948	28	0
7	5958	28.5	0
7	5968	29	0
7	5978	29.5	0
7	5994	30	0
8	56	0.5	4
8	3161	1	124
8	4319	1.5	167
8	4349	2	167
8	5335	2.5	189
8	5347	3	189
8	5359	3.5	189
8	5377	4	189
8	5389	4.5	189
8	5402	5	189
8	5413	5.5	189
8	5430	6	189
8	5441	6.5	189
8	5452	7	189
8	5463	7.5	189
8	5479	8	189
8	5490	8.5	189
8	5501	9	189
8	5512	9.5	189
8	5528	10	189
8	5540	10.5	189
8	5551	11	189
8	5562	11.5	189
8	5578	12	189
8	5589	12.5	189
8	5601	13	189
8	5612	13.5	189
8	5628	14	189
8	5640	14.5	189
8	5652	15	189
8	5662	15.5	189
8	5677	16	189
8	5687	16.5	189
8	5697	17	189
8	5707	17.5	189
8	5722	18	189
8	5732	18.5	189
8	5742	19	189
8	5752	19.5	189
8	5768	20	189
8	5778	20.5	189
8	5788	21	189
8	5798	21.5	189
8	5813	22	189
8	5823	22.5	189
8	5833	23	189
8	5843	23.5	189
8	5858	24	189
8	5868	24.5	189
8	5878	25	189
8	5888	25.5	189
8	5903	26	189
8	5913	26.5	189
8	5923	27	189
8	5934	27.5	189
8	5949	28	189
8	5959	28.5	189
8	5969	29	189
8	5979	29.5	189
8	5995	30	189
9	56	0.5	0
9	3161	1	0
9	4319	1.5	0
9	4349	2	0
9	5335	2.5	0
9	5347	3	0
9	5359	3.5	0
9	5377	4	0
9	5389	4.5	0
9	5402	5	0
9	5413	5.5	0
9	5430	6	0
9	5441	6.5	0
9	5452	7	0
9	5463	7.5	0
9	5479	8	0
9	5490	8.5	0
9	5501	9	0
9	5512	9.5	0
9	5528	10	0
9	5540	10.5	0
9	5551	11	0
9	5562	11.5	0
9	5578	12	0
9	5589	12.5	0
9	5601	13	0
9	5612	13.5	0
9	5628	14	0
9	5640	14.5	0
9	5652	15	0
9	5662	15.5	0
9	5677	16	0
9	5687	16.5	0
9	5697	17	0
9	5707	17.5	0
9	5722	18	0
9	5732	18.5	0
9	5742	19	0
9	5752	19.5	0
9	5768	20	0
9	5778	20.5	0
9	5788	21	0
9	5798	21.5	0
9	5813	22	0
9	5823	22.5	0
9	5833	23	0
9	5843	23.5	0
9	5858	24	0
9	5868	24.5	0
9	5878	25	0
9	5888	25.5	0
9	5903	26	0
9	5913	26.5	0
9	5923	27	0
9	5934	27.5	0
9	5949	28	0
9	5959	28.5	0
9	5969	29	0
9	5979	29.5	0
9	5995	30	0
10	56	0.5	0
10	3161	1	8
10	4319	1.5	9
10	4349	2	9
10	5335	2.5	9
10	5347	3	9
10	5359	3.5	9
10	5377	4	9
10	5389	4.5	9
10	5402	5	9
10	5413	5.5	9
10	5430	6	9
10	5441	6.5	9
10	5452	7	9
10	5463	7.5	9
10	5479	8	9
10	5490	8.5	9
10	5501	9	9
10	5512	9.5	9
10	5528	10	9
10	5540	10.5	9
10	5551	11	9
10	5562	11.5	9
10	5578	12	9
10	5589	12.5	9
10	5601	13	9
10	5612	13.5	9
10	5628	14	9
10	5640	14.5	9
10	5652	15	9
10	5662	15.5	9
10	5677	16	9
10	5687	16.5	9
10	5697	17	9
10	5707	17.5	9
10	5722	18	9
10	5732	18.5	9
10	5742	19	9
10	5752	19.5	9
10	5768	20	9
10	5778	20.5	9
10	5788	21	9
10	5798	21.5	9
10	5813	22	9
10	5823	22.5	9
10	5833	23	9
10	5843	23.5	9
10	5858	24	9
10	5868	24.5	9
10	5878	25	9
10	5888	25.5	9
10	5903	26	9
10	5913	26.5	9
10	5923	27	9
10	5934	27.5	9
10	5949	28	9
10	5959	28.5	9
10	5969	29	9
10	5979	29.5	9
10	5995	30	9
11	56	0.5	0
11	3161	1	0
11	4319	1.5	0
11	4349	2	0
11	5335	2.5	0
11	5347	3	0
11	5359	3.5	0
11	5377	4	0
11	5389	4.5	0
11	5402	5	0
11	5413	5.5	0
11	5430	6	0
11	5441	6.5	0
11	5452	7	0
11	5463	7.5	0
11	5479	8	0
11	5490	8.5	0
11	5501	9	0
11	5512	9.5	0
11	5528	10	0
11	5540	10.5	0
11	5551	11	0
11	5562	11.5	0
11	5578	12	0
11	5589	12.5	0
11	5601	13	0
11	5612	13.5	0
11	5628	14	0
11	5640	14.5	0
11	5652	15	0
11	5662	15.5	0
11	5677	16	0
11	5687	16.5	0
11	5697	17	0
11	5707	17.5	0
11	5722	18	0
11	5732	18.5	0
11	5742	19	0
11	5752	19.5	0
11	5768	20	0
11	5778	20.5	0
11	5788	21	0
11	5798	21.5	0
11	5813	22	0
11	5823	22.5	0
11	5833	23	0
11	5843	23.5	0
11	5858	24	0
11	5868	24.5	0
11	5878	25	0
11	5888	25.5	0
11	5903	26	0
11	5913	26.5	0
11	5923	27	0
11	5934	27.5	0
11	5949	28	0
11	5959	28.5	0
11	5969	29	0
11	5979	29.5	0
11	5995	30	0
12	58	0.5	5
12	3162	1	137
12	4320	1.5	188
12	4350	2	188
12	5336	2.5	209
12	5348	3	209
12	5360	3.5	209
12	5378	4	209
12	5390	4.5	209
13	58	0.5	0
13	3162	1	0
13	4320	1.5	0
13	4350	2	0
13	5336	2.5	0
13	5348	3	0
13	5360	3.5	0
13	5378	4	0
13	5390	4.5	0
14	58	0.5	0
14	3162	1	3
14	4320	1.5	7
14	4350	2	7
14	5336	2.5	8
14	5348	3	8
14	5360	3.5	8
14	5378	4	8
14	5390	4.5	8
15	58	0.5	0
15	3162	1	0
15	4320	1.5	0
15	4350	2	0
15	5336	2.5	0
15	5348	3	0
15	5360	3.5	0
15	5378	4	0
15	5390	4.5	0
16	60	0.5	4
16	3163	1	136
16	4321	1.5	175
16	4351	2	175
16	5337	2.5	206
16	5349	3	206
16	5361	3.5	206
16	5379	4	206
16	5391	4.5	206
16	5403	5	206
16	5414	5.5	206
16	5431	6	206
16	5442	6.5	206
16	5453	7	206
16	5464	7.5	206
16	5480	8	206
16	5491	8.5	206
16	5502	9	206
16	5513	9.5	206
16	5529	10	206
16	5541	10.5	206
16	5552	11	206
16	5563	11.5	206
16	5579	12	206
16	5590	12.5	206
16	5602	13	206
16	5613	13.5	206
16	5629	14	206
16	5641	14.5	206
16	5653	15	206
16	5663	15.5	206
16	5678	16	206
16	5688	16.5	206
16	5698	17	206
16	5708	17.5	206
16	5723	18	206
16	5733	18.5	206
16	5743	19	206
16	5753	19.5	206
16	5769	20	206
16	5779	20.5	206
16	5789	21	206
16	5799	21.5	206
16	5814	22	206
16	5824	22.5	206
16	5834	23	206
16	5844	23.5	206
16	5859	24	206
16	5869	24.5	206
16	5879	25	206
16	5889	25.5	206
16	5904	26	206
16	5914	26.5	206
16	5924	27	206
16	5935	27.5	206
16	5950	28	206
16	5960	28.5	206
16	5970	29	206
16	5980	29.5	206
16	5996	30	206
17	60	0.5	0
17	3163	1	0
17	4321	1.5	0
17	4351	2	0
17	5337	2.5	0
17	5349	3	0
17	5361	3.5	0
17	5379	4	0
17	5391	4.5	0
17	5403	5	0
17	5414	5.5	0
17	5431	6	0
17	5442	6.5	0
17	5453	7	0
17	5464	7.5	0
17	5480	8	0
17	5491	8.5	0
17	5502	9	0
17	5513	9.5	0
17	5529	10	0
17	5541	10.5	0
17	5552	11	0
17	5563	11.5	0
17	5579	12	0
17	5590	12.5	0
17	5602	13	0
17	5613	13.5	0
17	5629	14	0
17	5641	14.5	0
17	5653	15	0
17	5663	15.5	0
17	5678	16	0
17	5688	16.5	0
17	5698	17	0
17	5708	17.5	0
17	5723	18	0
17	5733	18.5	0
17	5743	19	0
17	5753	19.5	0
17	5769	20	0
17	5779	20.5	0
17	5789	21	0
17	5799	21.5	0
17	5814	22	0
17	5824	22.5	0
17	5834	23	0
17	5844	23.5	0
17	5859	24	0
17	5869	24.5	0
17	5879	25	0
17	5889	25.5	0
17	5904	26	0
17	5914	26.5	0
17	5924	27	0
17	5935	27.5	0
17	5950	28	0
17	5960	28.5	0
17	5970	29	0
17	5980	29.5	0
17	5996	30	0
18	60	0.5	0
18	3163	1	8
18	4321	1.5	13
18	4351	2	13
18	5337	2.5	15
18	5349	3	15
18	5361	3.5	15
18	5379	4	15
18	5391	4.5	15
18	5403	5	15
18	5414	5.5	15
18	5431	6	15
18	5442	6.5	15
18	5453	7	15
18	5464	7.5	15
18	5480	8	15
18	5491	8.5	15
18	5502	9	15
18	5513	9.5	15
18	5529	10	15
18	5541	10.5	15
18	5552	11	15
18	5563	11.5	15
18	5579	12	15
18	5590	12.5	15
18	5602	13	15
18	5613	13.5	15
18	5629	14	15
18	5641	14.5	15
18	5653	15	15
18	5663	15.5	15
18	5678	16	15
18	5688	16.5	15
18	5698	17	15
18	5708	17.5	15
18	5723	18	15
18	5733	18.5	15
18	5743	19	15
18	5753	19.5	15
18	5769	20	15
18	5779	20.5	15
18	5789	21	15
18	5799	21.5	15
18	5814	22	15
18	5824	22.5	15
18	5834	23	15
18	5844	23.5	15
18	5859	24	15
18	5869	24.5	15
18	5879	25	15
18	5889	25.5	15
18	5904	26	15
18	5914	26.5	15
18	5924	27	15
18	5935	27.5	15
18	5950	28	15
18	5960	28.5	15
18	5970	29	15
18	5980	29.5	15
18	5996	30	15
19	60	0.5	0
19	3163	1	0
19	4321	1.5	0
19	4351	2	0
19	5337	2.5	0
19	5349	3	0
19	5361	3.5	0
19	5379	4	0
19	5391	4.5	0
19	5403	5	0
19	5414	5.5	0
19	5431	6	0
19	5442	6.5	0
19	5453	7	0
19	5464	7.5	0
19	5480	8	0
19	5491	8.5	0
19	5502	9	0
19	5513	9.5	0
19	5529	10	0
19	5541	10.5	0
19	5552	11	0
19	5563	11.5	0
19	5579	12	0
19	5590	12.5	0
19	5602	13	0
19	5613	13.5	0
19	5629	14	0
19	5641	14.5	0
19	5653	15	0
19	5663	15.5	0
19	5678	16	0
19	5688	16.5	0
19	5698	17	0
19	5708	17.5	0
19	5723	18	0
19	5733	18.5	0
19	5743	19	0
19	5753	19.5	0
19	5769	20	0
19	5779	20.5	0
19	5789	21	0
19	5799	21.5	0
19	5814	22	0
19	5824	22.5	0
19	5834	23	0
19	5844	23.5	0
19	5859	24	0
19	5869	24.5	0
19	5879	25	0
19	5889	25.5	0
19	5904	26	0
19	5914	26.5	0
19	5924	27	0
19	5935	27.5	0
19	5950	28	0
19	5960	28.5	0
19	5970	29	0
19	5980	29.5	0
19	5996	30	0
20	62	0.5	4
20	3164	1	122
20	4322	1.5	164
20	4352	2	164
20	5338	2.5	197
20	5350	3	197
20	5362	3.5	197
20	5380	4	197
20	5392	4.5	197
20	5404	5	197
20	5415	5.5	197
20	5432	6	197
20	5443	6.5	197
20	5454	7	197
20	5465	7.5	197
20	5481	8	197
20	5492	8.5	197
20	5503	9	197
20	5514	9.5	197
20	5530	10	197
20	5542	10.5	197
20	5553	11	197
20	5564	11.5	197
20	5580	12	197
20	5591	12.5	197
20	5603	13	197
20	5614	13.5	197
20	5630	14	197
20	5642	14.5	197
20	5654	15	197
20	5664	15.5	197
20	5679	16	197
20	5689	16.5	197
20	5699	17	197
20	5709	17.5	197
20	5724	18	197
20	5734	18.5	197
20	5744	19	197
20	5754	19.5	197
20	5770	20	197
20	5780	20.5	197
20	5790	21	197
20	5800	21.5	197
20	5815	22	197
20	5825	22.5	197
20	5835	23	197
20	5845	23.5	197
20	5860	24	197
20	5870	24.5	197
20	5880	25	197
20	5890	25.5	197
20	5905	26	197
20	5915	26.5	197
20	5925	27	197
20	5936	27.5	197
20	5951	28	197
20	5961	28.5	197
20	5971	29	197
20	5981	29.5	197
20	5997	30	197
21	62	0.5	0
21	3164	1	0
21	4322	1.5	0
21	4352	2	0
21	5338	2.5	0
21	5350	3	0
21	5362	3.5	0
21	5380	4	0
21	5392	4.5	0
21	5404	5	0
21	5415	5.5	0
21	5432	6	0
21	5443	6.5	0
21	5454	7	0
21	5465	7.5	0
21	5481	8	0
21	5492	8.5	0
21	5503	9	0
21	5514	9.5	0
21	5530	10	0
21	5542	10.5	0
21	5553	11	0
21	5564	11.5	0
21	5580	12	0
21	5591	12.5	0
21	5603	13	0
21	5614	13.5	0
21	5630	14	0
21	5642	14.5	0
21	5654	15	0
21	5664	15.5	0
21	5679	16	0
21	5689	16.5	0
21	5699	17	0
21	5709	17.5	0
21	5724	18	0
21	5734	18.5	0
21	5744	19	0
21	5754	19.5	0
21	5770	20	0
21	5780	20.5	0
21	5790	21	0
21	5800	21.5	0
21	5815	22	0
21	5825	22.5	0
21	5835	23	0
21	5845	23.5	0
21	5860	24	0
21	5870	24.5	0
21	5880	25	0
21	5890	25.5	0
21	5905	26	0
21	5915	26.5	0
21	5925	27	0
21	5936	27.5	0
21	5951	28	0
21	5961	28.5	0
21	5971	29	0
21	5981	29.5	0
21	5997	30	0
22	62	0.5	0
22	3164	1	10
22	4322	1.5	12
22	4352	2	12
22	5338	2.5	12
22	5350	3	12
22	5362	3.5	12
22	5380	4	12
22	5392	4.5	12
22	5404	5	12
22	5415	5.5	12
22	5432	6	12
22	5443	6.5	12
22	5454	7	12
22	5465	7.5	12
22	5481	8	12
22	5492	8.5	12
22	5503	9	12
22	5514	9.5	12
22	5530	10	12
22	5542	10.5	12
22	5553	11	12
22	5564	11.5	12
22	5580	12	12
22	5591	12.5	12
22	5603	13	12
22	5614	13.5	12
22	5630	14	12
22	5642	14.5	12
22	5654	15	12
22	5664	15.5	12
22	5679	16	12
22	5689	16.5	12
22	5699	17	12
22	5709	17.5	12
22	5724	18	12
22	5734	18.5	12
22	5744	19	12
22	5754	19.5	12
22	5770	20	12
22	5780	20.5	12
22	5790	21	12
22	5800	21.5	12
22	5815	22	12
22	5825	22.5	12
22	5835	23	12
22	5845	23.5	12
22	5860	24	12
22	5870	24.5	12
22	5880	25	12
22	5890	25.5	12
22	5905	26	12
22	5915	26.5	12
22	5925	27	12
22	5936	27.5	12
22	5951	28	12
22	5961	28.5	12
22	5971	29	12
22	5981	29.5	12
22	5997	30	12
23	62	0.5	0
23	3164	1	0
23	4322	1.5	0
23	4352	2	0
23	5338	2.5	0
23	5350	3	0
23	5362	3.5	0
23	5380	4	0
23	5392	4.5	0
23	5404	5	0
23	5415	5.5	0
23	5432	6	0
23	5443	6.5	0
23	5454	7	0
23	5465	7.5	0
23	5481	8	0
23	5492	8.5	0
23	5503	9	0
23	5514	9.5	0
23	5530	10	0
23	5542	10.5	0
23	5553	11	0
23	5564	11.5	0
23	5580	12	0
23	5591	12.5	0
23	5603	13	0
23	5614	13.5	0
23	5630	14	0
23	5642	14.5	0
23	5654	15	0
23	5664	15.5	0
23	5679	16	0
23	5689	16.5	0
23	5699	17	0
23	5709	17.5	0
23	5724	18	0
23	5734	18.5	0
23	5744	19	0
23	5754	19.5	0
23	5770	20	0
23	5780	20.5	0
23	5790	21	0
23	5800	21.5	0
23	5815	22	0
23	5825	22.5	0
23	5835	23	0
23	5845	23.5	0
23	5860	24	0
23	5870	24.5	0
23	5880	25	0
23	5890	25.5	0
23	5905	26	0
23	5915	26.5	0
23	5925	27	0
23	5936	27.5	0
23	5951	28	0
23	5961	28.5	0
23	5971	29	0
23	5981	29.5	0
23	5997	30	0
24	64	0.5	5
24	3165	1	150
24	4323	1.5	202
24	4353	2	202
24	5339	2.5	255
24	5351	3	255
24	5363	3.5	255
24	5381	4	255
24	5393	4.5	255
24	5405	5	255
24	5416	5.5	255
24	5433	6	255
24	5444	6.5	255
24	5455	7	255
24	5466	7.5	255
24	5482	8	255
24	5493	8.5	255
24	5504	9	255
24	5515	9.5	255
24	5531	10	255
24	5543	10.5	255
24	5554	11	255
24	5565	11.5	255
24	5581	12	255
24	5592	12.5	255
24	5604	13	255
24	5615	13.5	255
24	5631	14	255
24	5643	14.5	255
24	5655	15	255
24	5665	15.5	255
24	5680	16	255
24	5690	16.5	255
24	5700	17	255
24	5710	17.5	255
24	5725	18	255
24	5735	18.5	255
24	5745	19	255
24	5755	19.5	255
24	5771	20	255
24	5781	20.5	255
24	5791	21	255
24	5801	21.5	255
24	5816	22	255
24	5826	22.5	255
24	5836	23	255
24	5846	23.5	255
24	5861	24	255
24	5871	24.5	255
24	5881	25	255
24	5891	25.5	255
24	5906	26	255
24	5916	26.5	255
24	5926	27	255
24	5937	27.5	255
24	5952	28	255
24	5962	28.5	255
24	5972	29	255
24	5982	29.5	255
24	5998	30	255
25	64	0.5	0
25	3165	1	0
25	4323	1.5	0
25	4353	2	0
25	5339	2.5	0
25	5351	3	0
25	5363	3.5	0
25	5381	4	0
25	5393	4.5	0
25	5405	5	0
25	5416	5.5	0
25	5433	6	0
25	5444	6.5	0
25	5455	7	0
25	5466	7.5	0
25	5482	8	0
25	5493	8.5	0
25	5504	9	0
25	5515	9.5	0
25	5531	10	0
25	5543	10.5	0
25	5554	11	0
25	5565	11.5	0
25	5581	12	0
25	5592	12.5	0
25	5604	13	0
25	5615	13.5	0
25	5631	14	0
25	5643	14.5	0
25	5655	15	0
25	5665	15.5	0
25	5680	16	0
25	5690	16.5	0
25	5700	17	0
25	5710	17.5	0
25	5725	18	0
25	5735	18.5	0
25	5745	19	0
25	5755	19.5	0
25	5771	20	0
25	5781	20.5	0
25	5791	21	0
25	5801	21.5	0
25	5816	22	0
25	5826	22.5	0
25	5836	23	0
25	5846	23.5	0
25	5861	24	0
25	5871	24.5	0
25	5881	25	0
25	5891	25.5	0
25	5906	26	0
25	5916	26.5	0
25	5926	27	0
25	5937	27.5	0
25	5952	28	0
25	5962	28.5	0
25	5972	29	0
25	5982	29.5	0
25	5998	30	0
26	64	0.5	0
26	3165	1	10
26	4323	1.5	13
26	4353	2	13
26	5339	2.5	15
26	5351	3	15
26	5363	3.5	15
26	5381	4	15
26	5393	4.5	15
26	5405	5	15
26	5416	5.5	15
26	5433	6	15
26	5444	6.5	15
26	5455	7	15
26	5466	7.5	15
26	5482	8	15
26	5493	8.5	15
26	5504	9	15
26	5515	9.5	15
26	5531	10	15
26	5543	10.5	15
26	5554	11	15
26	5565	11.5	15
26	5581	12	15
26	5592	12.5	15
26	5604	13	15
26	5615	13.5	15
26	5631	14	15
26	5643	14.5	15
26	5655	15	15
26	5665	15.5	15
26	5680	16	15
26	5690	16.5	15
26	5700	17	15
26	5710	17.5	15
26	5725	18	15
26	5735	18.5	15
26	5745	19	15
26	5755	19.5	15
26	5771	20	15
26	5781	20.5	15
26	5791	21	15
26	5801	21.5	15
26	5816	22	15
26	5826	22.5	15
26	5836	23	15
26	5846	23.5	15
26	5861	24	15
26	5871	24.5	15
26	5881	25	15
26	5891	25.5	15
26	5906	26	15
26	5916	26.5	15
26	5926	27	15
26	5937	27.5	15
26	5952	28	15
26	5962	28.5	15
26	5972	29	15
26	5982	29.5	15
26	5998	30	15
27	64	0.5	0
27	3165	1	0
27	4323	1.5	0
27	4353	2	0
27	5339	2.5	0
27	5351	3	0
27	5363	3.5	0
27	5381	4	0
27	5393	4.5	0
27	5405	5	0
27	5416	5.5	0
27	5433	6	0
27	5444	6.5	0
27	5455	7	0
27	5466	7.5	0
27	5482	8	0
27	5493	8.5	0
27	5504	9	0
27	5515	9.5	0
27	5531	10	0
27	5543	10.5	0
27	5554	11	0
27	5565	11.5	0
27	5581	12	0
27	5592	12.5	0
27	5604	13	0
27	5615	13.5	0
27	5631	14	0
27	5643	14.5	0
27	5655	15	0
27	5665	15.5	0
27	5680	16	0
27	5690	16.5	0
27	5700	17	0
27	5710	17.5	0
27	5725	18	0
27	5735	18.5	0
27	5745	19	0
27	5755	19.5	0
27	5771	20	0
27	5781	20.5	0
27	5791	21	0
27	5801	21.5	0
27	5816	22	0
27	5826	22.5	0
27	5836	23	0
27	5846	23.5	0
27	5861	24	0
27	5871	24.5	0
27	5881	25	0
27	5891	25.5	0
27	5906	26	0
27	5916	26.5	0
27	5926	27	0
27	5937	27.5	0
27	5952	28	0
27	5962	28.5	0
27	5972	29	0
27	5982	29.5	0
27	5998	30	0
28	66	0.5	4
28	3166	1	142
28	4324	1.5	186
28	4354	2	186
28	5340	2.5	219
28	5352	3	219
28	5364	3.5	219
28	5382	4	219
28	5394	4.5	219
28	5406	5	219
28	5417	5.5	219
28	5434	6	219
28	5445	6.5	219
28	5456	7	219
28	5467	7.5	219
28	5483	8	219
28	5494	8.5	219
28	5505	9	219
28	5516	9.5	219
28	5532	10	219
28	5544	10.5	219
28	5555	11	219
28	5566	11.5	219
28	5582	12	219
28	5593	12.5	219
28	5605	13	219
28	5616	13.5	219
28	5632	14	219
28	5644	14.5	219
29	66	0.5	0
29	3166	1	0
29	4324	1.5	0
29	4354	2	0
29	5340	2.5	0
29	5352	3	0
29	5364	3.5	0
29	5382	4	0
29	5394	4.5	0
29	5406	5	0
29	5417	5.5	0
29	5434	6	0
29	5445	6.5	0
29	5456	7	0
29	5467	7.5	0
29	5483	8	0
29	5494	8.5	0
29	5505	9	0
29	5516	9.5	0
29	5532	10	0
29	5544	10.5	0
29	5555	11	0
29	5566	11.5	0
29	5582	12	0
29	5593	12.5	0
29	5605	13	0
29	5616	13.5	0
29	5632	14	0
29	5644	14.5	0
30	66	0.5	0
30	3166	1	2
30	4324	1.5	2
30	4354	2	2
30	5340	2.5	13
30	5352	3	13
30	5364	3.5	13
30	5382	4	13
30	5394	4.5	13
30	5406	5	13
30	5417	5.5	13
30	5434	6	13
30	5445	6.5	13
30	5456	7	13
30	5467	7.5	13
30	5483	8	13
30	5494	8.5	13
30	5505	9	13
30	5516	9.5	13
30	5532	10	13
30	5544	10.5	13
30	5555	11	13
30	5566	11.5	13
30	5582	12	13
30	5593	12.5	13
30	5605	13	13
30	5616	13.5	13
30	5632	14	13
30	5644	14.5	13
31	66	0.5	0
31	3166	1	0
31	4324	1.5	0
31	4354	2	0
31	5340	2.5	0
31	5352	3	0
31	5364	3.5	0
31	5382	4	0
31	5394	4.5	0
31	5406	5	0
31	5417	5.5	0
31	5434	6	0
31	5445	6.5	0
31	5456	7	0
31	5467	7.5	0
31	5483	8	0
31	5494	8.5	0
31	5505	9	0
31	5516	9.5	0
31	5532	10	0
31	5544	10.5	0
31	5555	11	0
31	5566	11.5	0
31	5582	12	0
31	5593	12.5	0
31	5605	13	0
31	5616	13.5	0
31	5632	14	0
31	5644	14.5	0
32	68	0.5	4
32	3167	1	140
32	4325	1.5	183
32	4355	2	183
32	5341	2.5	223
32	5353	3	223
32	5365	3.5	223
32	5383	4	223
32	5395	4.5	223
32	5407	5	223
32	5418	5.5	223
32	5435	6	223
32	5446	6.5	223
32	5457	7	223
32	5468	7.5	223
32	5484	8	223
32	5495	8.5	223
32	5506	9	223
32	5517	9.5	223
32	5533	10	223
32	5545	10.5	223
32	5556	11	223
32	5567	11.5	223
32	5583	12	223
32	5594	12.5	223
32	5606	13	223
32	5617	13.5	223
32	5633	14	223
32	5645	14.5	223
32	5656	15	223
32	5666	15.5	223
32	5681	16	223
32	5691	16.5	223
32	5701	17	223
32	5711	17.5	223
32	5726	18	223
32	5736	18.5	223
32	5746	19	223
32	5756	19.5	223
32	5772	20	223
32	5782	20.5	223
32	5792	21	223
32	5802	21.5	223
32	5817	22	223
32	5827	22.5	223
32	5837	23	223
32	5847	23.5	223
32	5862	24	223
32	5872	24.5	223
32	5882	25	223
32	5892	25.5	223
32	5907	26	223
32	5917	26.5	223
32	5927	27	223
32	5938	27.5	223
32	5953	28	223
32	5963	28.5	223
32	5973	29	223
32	5983	29.5	223
32	5999	30	223
33	68	0.5	0
33	3167	1	0
33	4325	1.5	0
33	4355	2	0
33	5341	2.5	0
33	5353	3	0
33	5365	3.5	0
33	5383	4	0
33	5395	4.5	0
33	5407	5	0
33	5418	5.5	0
33	5435	6	0
33	5446	6.5	0
33	5457	7	0
33	5468	7.5	0
33	5484	8	0
33	5495	8.5	0
33	5506	9	0
33	5517	9.5	0
33	5533	10	0
33	5545	10.5	0
33	5556	11	0
33	5567	11.5	0
33	5583	12	0
33	5594	12.5	0
33	5606	13	0
33	5617	13.5	0
33	5633	14	0
33	5645	14.5	0
33	5656	15	0
33	5666	15.5	0
33	5681	16	0
33	5691	16.5	0
33	5701	17	0
33	5711	17.5	0
33	5726	18	0
33	5736	18.5	0
33	5746	19	0
33	5756	19.5	0
33	5772	20	0
33	5782	20.5	0
33	5792	21	0
33	5802	21.5	0
33	5817	22	0
33	5827	22.5	0
33	5837	23	0
33	5847	23.5	0
33	5862	24	0
33	5872	24.5	0
33	5882	25	0
33	5892	25.5	0
33	5907	26	0
33	5917	26.5	0
33	5927	27	0
33	5938	27.5	0
33	5953	28	0
33	5963	28.5	0
33	5973	29	0
33	5983	29.5	0
33	5999	30	0
34	68	0.5	0
34	3167	1	4
34	4325	1.5	5
34	4355	2	5
34	5341	2.5	9
34	5353	3	9
34	5365	3.5	9
34	5383	4	9
34	5395	4.5	9
34	5407	5	9
34	5418	5.5	9
34	5435	6	9
34	5446	6.5	9
34	5457	7	9
34	5468	7.5	9
34	5484	8	9
34	5495	8.5	9
34	5506	9	9
34	5517	9.5	9
34	5533	10	9
34	5545	10.5	9
34	5556	11	9
34	5567	11.5	9
34	5583	12	9
34	5594	12.5	9
34	5606	13	9
34	5617	13.5	9
34	5633	14	9
34	5645	14.5	9
34	5656	15	9
34	5666	15.5	9
34	5681	16	9
34	5691	16.5	9
34	5701	17	9
34	5711	17.5	9
34	5726	18	9
34	5736	18.5	9
34	5746	19	9
34	5756	19.5	9
34	5772	20	9
34	5782	20.5	9
34	5792	21	9
34	5802	21.5	9
34	5817	22	9
34	5827	22.5	9
34	5837	23	9
34	5847	23.5	9
34	5862	24	9
34	5872	24.5	9
34	5882	25	9
34	5892	25.5	9
34	5907	26	9
34	5917	26.5	9
34	5927	27	9
34	5938	27.5	9
34	5953	28	9
34	5963	28.5	9
34	5973	29	9
34	5983	29.5	9
34	5999	30	9
35	68	0.5	0
35	3167	1	0
35	4325	1.5	0
35	4355	2	0
35	5341	2.5	0
35	5353	3	0
35	5365	3.5	0
35	5383	4	0
35	5395	4.5	0
35	5407	5	0
35	5418	5.5	0
35	5435	6	0
35	5446	6.5	0
35	5457	7	0
35	5468	7.5	0
35	5484	8	0
35	5495	8.5	0
35	5506	9	0
35	5517	9.5	0
35	5533	10	0
35	5545	10.5	0
35	5556	11	0
35	5567	11.5	0
35	5583	12	0
35	5594	12.5	0
35	5606	13	0
35	5617	13.5	0
35	5633	14	0
35	5645	14.5	0
35	5656	15	0
35	5666	15.5	0
35	5681	16	0
35	5691	16.5	0
35	5701	17	0
35	5711	17.5	0
35	5726	18	0
35	5736	18.5	0
35	5746	19	0
35	5756	19.5	0
35	5772	20	0
35	5782	20.5	0
35	5792	21	0
35	5802	21.5	0
35	5817	22	0
35	5827	22.5	0
35	5837	23	0
35	5847	23.5	0
35	5862	24	0
35	5872	24.5	0
35	5882	25	0
35	5892	25.5	0
35	5907	26	0
35	5917	26.5	0
35	5927	27	0
35	5938	27.5	0
35	5953	28	0
35	5963	28.5	0
35	5973	29	0
35	5983	29.5	0
35	5999	30	0
36	70	0.5	5
36	3168	1	163
36	4326	1.5	218
36	4356	2	218
36	5342	2.5	273
36	5354	3	273
36	5366	3.5	273
36	5384	4	273
36	5396	4.5	273
36	5408	5	273
36	5419	5.5	273
36	5436	6	273
36	5447	6.5	273
36	5458	7	273
36	5469	7.5	273
36	5485	8	273
36	5496	8.5	273
36	5507	9	273
36	5518	9.5	273
36	5534	10	273
36	5546	10.5	273
36	5557	11	273
36	5568	11.5	273
36	5584	12	273
36	5595	12.5	273
36	5607	13	273
36	5618	13.5	273
36	5634	14	273
36	5646	14.5	273
36	5657	15	273
36	5667	15.5	273
36	5682	16	273
36	5692	16.5	273
36	5702	17	273
36	5712	17.5	273
36	5727	18	273
36	5737	18.5	273
36	5747	19	273
36	5757	19.5	273
36	5773	20	273
36	5783	20.5	273
36	5793	21	273
36	5803	21.5	273
36	5818	22	273
36	5828	22.5	273
36	5838	23	273
36	5848	23.5	273
36	5863	24	273
36	5873	24.5	273
36	5883	25	273
36	5893	25.5	273
36	5908	26	273