version 3
run QuickDemo-0-20251030-09:01:51-4920
attr configname QuickDemo
attr datetime 20251030-09:01:51
attr datetimef 20251030-090151
attr experiment QuickDemo
attr inifile omnetpp.ini
attr iterationvars ""
attr iterationvarsd ""
attr iterationvarsf ""
attr measurement ""
attr network MeshChatNetwork
attr processid 4920
attr repetition 0
attr replication #0
attr resultdir results
attr runnumber 0
attr seedset 0
config description "FAST 60-second demo for presentation"
config sim-time-limit 60s
config *.numNodes 12
config *.mobility true
config *.enableLinkFailures true
config *.node[*].messageSendInterval exponential(2s)
config *.node[*].maxMessages 8
config *.node[*].initialTTL 5
config *.node[0..3].enableMobility true
config *.node[0..3].mobilityUpdateInterval 1s
config *.node[0..3].mobilitySpeed 15mps
config *.node[0..3].areaWidth 600m
config *.node[0..3].areaHeight 400m
config *.node[4..11].enableMobility false
config *.node[*].packetLossRate 0.03
config network MeshChatNetwork
config ned-path .;../src
config sim-time-limit 30s
config *.node[*].packetLossRate 0.05
config *.node[*].maxMessages 15
config *.node[*].initialTTL 7
config *.node[*].messageSendInterval exponential(5s)
config *.node[*].displayStrings true
config *.node[0..5].enableMobility true
config *.node[0..5].mobilityUpdateInterval 2s
config *.node[0..5].mobilitySpeed 10mps
config *.node[0..5].areaWidth 800m
config *.node[0..5].areaHeight 600m
config *.node[6..11].enableMobility false

vector 0 MeshChatNetwork.node[0] messagesSent ETV
vector 1 MeshChatNetwork.node[0] messagesDelivered ETV
vector 2 MeshChatNetwork.node[0] messagesDropped ETV
vector 3 MeshChatNetwork.node[0] deliveryRatio ETV
vector 4 MeshChatNetwork.node[1] messagesSent ETV
vector 5 MeshChatNetwork.node[1] messagesDelivered ETV
vector 6 MeshChatNetwork.node[1] messagesDropped ETV
vector 7 MeshChatNetwork.node[1] deliveryRatio ETV
vector 8 MeshChatNetwork.node[2] messagesSent ETV
vector 9 MeshChatNetwork.node[2] messagesDelivered ETV
vector 10 MeshChatNetwork.node[2] messagesDropped ETV
vector 11 MeshChatNetwork.node[2] deliveryRatio ETV
vector 12 MeshChatNetwork.node[3] messagesSent ETV
vector 13 MeshChatNetwork.node[3] messagesDelivered ETV
vector 14 MeshChatNetwork.node[3] messagesDropped ETV
vector 15 MeshChatNetwork.node[3] deliveryRatio ETV
vector 16 MeshChatNetwork.node[4] messagesSent ETV
vector 17 MeshChatNetwork.node[4] messagesDelivered ETV
vector 18 MeshChatNetwork.node[4] messagesDropped ETV
vector 19 MeshChatNetwork.node[4] deliveryRatio ETV
vector 20 MeshChatNetwork.node[5] messagesSent ETV
vector 21 MeshChatNetwork.node[5] messagesDelivered ETV
vector 22 MeshChatNetwork.node[5] messagesDropped ETV
vector 23 MeshChatNetwork.node[5] deliveryRatio ETV
vector 24 MeshChatNetwork.node[6] messagesSent ETV
vector 25 MeshChatNetwork.node[6] messagesDelivered ETV
vector 26 MeshChatNetwork.node[6] messagesDropped ETV
vector 27 MeshChatNetwork.node[6] deliveryRatio ETV
vector 28 MeshChatNetwork.node[7] messagesSent ETV
vector 29 MeshChatNetwork.node[7] messagesDelivered ETV
vector 30 MeshChatNetwork.node[7] messagesDropped ETV
vector 31 MeshChatNetwork.node[7] deliveryRatio ETV
vector 32 MeshChatNetwork.node[8] messagesSent ETV
vector 33 MeshChatNetwork.node[8] messagesDelivered ETV
vector 34 MeshChatNetwork.node[8] messagesDropped ETV
vector 35 MeshChatNetwork.node[8] deliveryRatio ETV
vector 36 MeshChatNetwork.node[9] messagesSent ETV
vector 37 MeshChatNetwork.node[9] messagesDelivered ETV
vector 38 MeshChatNetwork.node[9] messagesDropped ETV
vector 39 MeshChatNetwork.node[9] deliveryRatio ETV
vector 40 MeshChatNetwork.node[10] messagesSent ETV
vector 41 MeshChatNetwork.node[10] messagesDelivered ETV
vector 42 MeshChatNetwork.node[10] messagesDropped ETV
vector 43 MeshChatNetwork.node[10] deliveryRatio ETV
vector 44 MeshChatNetwork.node[11] messagesSent ETV
vector 45 MeshChatNetwork.node[11] messagesDelivered ETV
vector 46 MeshChatNetwork.node[11] messagesDropped ETV
vector 47 MeshChatNetwork.node[11] deliveryRatio ETV
0	52	0.5	5
0	2976	1	102
0	4090	1.5	155
0	4118	2	155
0	5222	2.5	210
0	5238	3	210
0	5250	3.5	210
0	5266	4	210
0	5278	4.5	210
0	5294	5	210
0	5305	5.5	210
0	5320	6	210
0	5331	6.5	210
0	5345	7	210
0	5357	7.5	210
0	5371	8	210
0	5383	8.5	210
0	5397	9	210
0	5408	9.5	210
0	5422	10	210
0	5434	10.5	210
0	5448	11	210
0	5460	11.5	210
0	5474	12	210
0	5485	12.5	210
0	5500	13	210
0	5511	13.5	210
0	5525	14	210
0	5536	14.5	210
0	5551	15	210
0	5561	15.5	210
0	5574	16	210
0	5584	16.5	210
0	5597	17	210
0	5607	17.5	210
0	5620	18	210
0	5630	18.5	210
0	5643	19	210
0	5654	19.5	210
0	5667	20	210
0	5677	20.5	210
0	5690	21	210
0	5700	21.5	210
0	5714	22	210
0	5724	22.5	210
0	5737	23	210
0	5747	23.5	210
0	5760	24	210
0	5770	24.5	210
0	5783	25	210
0	5793	25.5	210
0	5806	26	210
0	5816	26.5	210
0	5830	27	210
0	5841	27.5	210
0	5855	28	210
0	5865	28.5	210
0	5878	29	210
0	5888	29.5	210
0	5901	30	210
0	5912	30.5	210
0	5927	31	210
0	5937	31.5	210
0	5950	32	210
0	5960	32.5	210
0	5974	33	210
0	5984	33.5	210
0	5997	34	210
0	6007	34.5	210
0	6020	35	210
0	6030	35.5	210
0	6043	36	210
0	6053	36.5	210
0	6066	37	210
0	6076	37.5	210
0	6089	38	210
0	6099	38.5	210
0	6113	39	210
0	6123	39.5	210
0	6136	40	210
0	6146	40.5	210
0	6159	41	210
0	6170	41.5	210
0	6183	42	210
0	6194	42.5	210
0	6207	43	210
0	6217	43.5	210
0	6230	44	210
0	6240	44.5	210
0	6254	45	210
0	6264	45.5	210
0	6277	46	210
0	6287	46.5	210
0	6300	47	210
0	6312	47.5	210
0	6325	48	210
0	6336	48.5	210
0	6349	49	210
0	6359	49.5	210
0	6372	50	210
0	6382	50.5	210
0	6396	51	210
0	6406	51.5	210
0	6419	52	210
0	6429	52.5	210
0	6442	53	210
0	6452	53.5	210
0	6465	54	210
0	6475	54.5	210
0	6488	55	210
0	6499	55.5	210
0	6512	56	210
0	6523	56.5	210
0	6538	57	210
0	6548	57.5	210
0	6561	58	210
0	6571	58.5	210
0	6584	59	210
0	6594	59.5	210
0	6608	60	210
1	52	0.5	0
1	2976	1	0
1	4090	1.5	0
1	4118	2	0
1	5222	2.5	0
1	5238	3	0
1	5250	3.5	0
1	5266	4	0
1	5278	4.5	0
1	5294	5	0
1	5305	5.5	0
1	5320	6	0
1	5331	6.5	0
1	5345	7	0
1	5357	7.5	0
1	5371	8	0
1	5383	8.5	0
1	5397	9	0
1	5408	9.5	0
1	5422	10	0
1	5434	10.5	0
1	5448	11	0
1	5460	11.5	0
1	5474	12	0
1	5485	12.5	0
1	5500	13	0
1	5511	13.5	0
1	5525	14	0
1	5536	14.5	0
1	5551	15	0
1	5561	15.5	0
1	5574	16	0
1	5584	16.5	0
1	5597	17	0
1	5607	17.5	0
1	5620	18	0
1	5630	18.5	0
1	5643	19	0
1	5654	19.5	0
1	5667	20	0
1	5677	20.5	0
1	5690	21	0
1	5700	21.5	0
1	5714	22	0
1	5724	22.5	0
1	5737	23	0
1	5747	23.5	0
1	5760	24	0
1	5770	24.5	0
1	5783	25	0
1	5793	25.5	0
1	5806	26	0
1	5816	26.5	0
1	5830	27	0
1	5841	27.5	0
1	5855	28	0
1	5865	28.5	0
1	5878	29	0
1	5888	29.5	0
1	5901	30	0
1	5912	30.5	0
1	5927	31	0
1	5937	31.5	0
1	5950	32	0
1	5960	32.5	0
1	5974	33	0
1	5984	33.5	0
1	5997	34	0
1	6007	34.5	0
1	6020	35	0
1	6030	35.5	0
1	6043	36	0
1	6053	36.5	0
1	6066	37	0
1	6076	37.5	0
1	6089	38	0
1	6099	38.5	0
1	6113	39	0
1	6123	39.5	0
1	6136	40	0
1	6146	40.5	0
1	6159	41	0
1	6170	41.5	0
1	6183	42	0
1	6194	42.5	0
1	6207	43	0
1	6217	43.5	0
1	6230	44	0
1	6240	44.5	0
1	6254	45	0
1	6264	45.5	0
1	6277	46	0
1	6287	46.5	0
1	6300	47	0
1	6312	47.5	0
1	6325	48	0
1	6336	48.5	0
1	6349	49	0
1	6359	49.5	0
1	6372	50	0
1	6382	50.5	0
1	6396	51	0
1	6406	51.5	0
1	6419	52	0
1	6429	52.5	0
1	6442	53	0
1	6452	53.5	0
1	6465	54	0
1	6475	54.5	0
1	6488	55	0
1	6499	55.5	0
1	6512	56	0
1	6523	56.5	0
1	6538	57	0
1	6548	57.5	0
1	6561	58	0
1	6571	58.5	0
1	6584	59	0
1	6594	59.5	0
1	6608	60	0
2	52	0.5	0
2	2976	1	3
2	4090	1.5	5
2	4118	2	5
2	5222	2.5	5
2	5238	3	5
2	5250	3.5	5
2	5266	4	5
2	5278	4.5	5
2	5294	5	5
2	5305	5.5	5
2	5320	6	5
2	5331	6.5	5
2	5345	7	5
2	5357	7.5	5
2	5371	8	5
2	5383	8.5	5
2	5397	9	5
2	5408	9.5	5
2	5422	10	5
2	5434	10.5	5
2	5448	11	5
2	5460	11.5	5
2	5474	12	5
2	5485	12.5	5
2	5500	13	5
2	5511	13.5	5
2	5525	14	5
2	5536	14.5	5
2	5551	15	5
2	5561	15.5	5
2	5574	16	5
2	5584	16.5	5
2	5597	17	5
2	5607	17.5	5
2	5620	18	5
2	5630	18.5	5
2	5643	19	5
2	5654	19.5	5
2	5667	20	5
2	5677	20.5	5
2	5690	21	5
2	5700	21.5	5
2	5714	22	5
2	5724	22.5	5
2	5737	23	5
2	5747	23.5	5
2	5760	24	5
2	5770	24.5	5
2	5783	25	5
2	5793	25.5	5
2	5806	26	5
2	5816	26.5	5
2	5830	27	5
2	5841	27.5	5
2	5855	28	5
2	5865	28.5	5
2	5878	29	5
2	5888	29.5	5
2	5901	30	5
2	5912	30.5	5
2	5927	31	5
2	5937	31.5	5
2	5950	32	5
2	5960	32.5	5
2	5974	33	5
2	5984	33.5	5
2	5997	34	5
2	6007	34.5	5
2	6020	35	5
2	6030	35.5	5
2	6043	36	5
2	6053	36.5	5
2	6066	37	5
2	6076	37.5	5
2	6089	38	5
2	6099	38.5	5
2	6113	39	5
2	6123	39.5	5
2	6136	40	5
2	6146	40.5	5
2	6159	41	5
2	6170	41.5	5
2	6183	42	5
2	6194	42.5	5
2	6207	43	5
2	6217	43.5	5
2	6230	44	5
2	6240	44.5	5
2	6254	45	5
2	6264	45.5	5
2	6277	46	5
2	6287	46.5	5
2	6300	47	5
2	6312	47.5	5
2	6325	48	5
2	6336	48.5	5
2	6349	49	5
2	6359	49.5	5
2	6372	50	5
2	6382	50.5	5
2	6396	51	5
2	6406	51.5	5
2	6419	52	5
2	6429	52.5	5
2	6442	53	5
2	6452	53.5	5
2	6465	54	5
2	6475	54.5	5
2	6488	55	5
2	6499	55.5	5
2	6512	56	5
2	6523	56.5	5
2	6538	57	5
2	6548	57.5	5
2	6561	58	5
2	6571	58.5	5
2	6584	59	5
2	6594	59.5	5
2	6608	60	5
3	52	0.5	0
3	2976	1	0
3	4090	1.5	0
3	4118	2	0
3	5222	2.5	0
3	5238	3	0
3	5250	3.5	0
3	5266	4	0
3	5278	4.5	0
3	5294	5	0
3	5305	5.5	0
3	5320	6	0
3	5331	6.5	0
3	5345	7	0
3	5357	7.5	0
3	5371	8	0
3	5383	8.5	0
3	5397	9	0
3	5408	9.5	0
3	5422	10	0
3	5434	10.5	0
3	5448	11	0
3	5460	11.5	0
3	5474	12	0
3	5485	12.5	0
3	5500	13	0
3	5511	13.5	0
3	5525	14	0
3	5536	14.5	0
3	5551	15	0
3	5561	15.5	0
3	5574	16	0
3	5584	16.5	0
3	5597	17	0
3	5607	17.5	0
3	5620	18	0
3	5630	18.5	0
3	5643	19	0
3	5654	19.5	0
3	5667	20	0
3	5677	20.5	0
3	5690	21	0
3	5700	21.5	0
3	5714	22	0
3	5724	22.5	0
3	5737	23	0
3	5747	23.5	0
3	5760	24	0
3	5770	24.5	0
3	5783	25	0
3	5793	25.5	0
3	5806	26	0
3	5816	26.5	0
3	5830	27	0
3	5841	27.5	0
3	5855	28	0
3	5865	28.5	0
3	5878	29	0
3	5888	29.5	0
3	5901	30	0
3	5912	30.5	0
3	5927	31	0
3	5937	31.5	0
3	5950	32	0
3	5960	32.5	0
3	5974	33	0
3	5984	33.5	0
3	5997	34	0
3	6007	34.5	0
3	6020	35	0
3	6030	35.5	0
3	6043	36	0
3	6053	36.5	0
3	6066	37	0
3	6076	37.5	0
3	6089	38	0
3	6099	38.5	0
3	6113	39	0
3	6123	39.5	0
3	6136	40	0
3	6146	40.5	0
3	6159	41	0
3	6170	41.5	0
3	6183	42	0
3	6194	42.5	0
3	6207	43	0
3	6217	43.5	0
3	6230	44	0
3	6240	44.5	0
3	6254	45	0
3	6264	45.5	0
3	6277	46	0
3	6287	46.5	0
3	6300	47	0
3	6312	47.5	0
3	6325	48	0
3	6336	48.5	0
3	6349	49	0
3	6359	49.5	0
3	6372	50	0
3	6382	50.5	0
3	6396	51	0
3	6406	51.5	0
3	6419	52	0
3	6429	52.5	0
3	6442	53	0
3	6452	53.5	0
3	6465	54	0
3	6475	54.5	0
3	6488	55	0
3	6499	55.5	0
3	6512	56	0
3	6523	56.5	0
3	6538	57	0
3	6548	57.5	0
3	6561	58	0
3	6571	58.5	0
3	6584	59	0
3	6594	59.5	0
3	6608	60	0
4	54	0.5	3
4	2977	1	69
4	4091	1.5	90
4	4119	2	90
4	5223	2.5	111
4	5239	3	111
4	5251	3.5	111
4	5267	4	111
4	5279	4.5	111
4	5295	5	111
4	5306	5.5	111
4	5321	6	111
4	5332	6.5	111
4	5346	7	111
4	5358	7.5	111
4	5372	8	111
4	5384	8.5	111
4	5398	9	111
4	5409	9.5	111
4	5423	10	111
4	5435	10.5	111
4	5449	11	111
4	5461	11.5	111
4	5475	12	111
4	5486	12.5	111
4	5501	13	111
4	5512	13.5	111
4	5526	14	111
4	5537	14.5	111
4	5552	15	111
4	5562	15.5	111
4	5575	16	111
4	5585	16.5	111
4	5598	17	111
4	5608	17.5	111
4	5621	18	111
4	5631	18.5	111
4	5644	19	111
4	5655	19.5	111
4	5668	20	111
4	5678	20.5	111
4	5691	21	111
4	5701	21.5	111
4	5715	22	111
4	5725	22.5	111
4	5738	23	111
4	5748	23.5	111
4	5761	24	111
4	5771	24.5	111
4	5784	25	111
4	5794	25.5	111
4	5807	26	111
4	5817	26.5	111
4	5831	27	111
4	5842	27.5	111
4	5856	28	111
4	5866	28.5	111
4	5879	29	111
4	5889	29.5	111
4	5902	30	111
4	5913	30.5	111
4	5928	31	111
4	5938	31.5	111
4	5951	32	111
4	5961	32.5	111
4	5975	33	111
4	5985	33.5	111
4	5998	34	111
4	6008	34.5	111
4	6021	35	111
4	6031	35.5	111
4	6044	36	111
4	6054	36.5	111
4	6067	37	111
4	6077	37.5	111
4	6090	38	111
4	6100	38.5	111
4	6114	39	111
4	6124	39.5	111
4	6137	40	111
4	6147	40.5	111
4	6160	41	111
4	6171	41.5	111
4	6184	42	111
4	6195	42.5	111
4	6208	43	111
4	6218	43.5	111
4	6231	44	111
4	6241	44.5	111
4	6255	45	111
4	6265	45.5	111
4	6278	46	111
4	6288	46.5	111
4	6301	47	111
4	6313	47.5	111
4	6326	48	111
4	6337	48.5	111
4	6350	49	111
4	6360	49.5	111
4	6373	50	111
4	6383	50.5	111
4	6397	51	111
4	6407	51.5	111
4	6420	52	111
4	6430	52.5	111
4	6443	53	111
4	6453	53.5	111
4	6466	54	111
4	6476	54.5	111
4	6489	55	111
4	6500	55.5	111
4	6513	56	111
4	6524	56.5	111
4	6539	57	111
4	6549	57.5	111
4	6562	58	111
4	6572	58.5	111
4	6585	59	111
4	6595	59.5	111
4	6609	60	111
5	54	0.5	0
5	2977	1	0
5	4091	1.5	0
5	4119	2	0
5	5223	2.5	0
5	5239	3	0
5	5251	3.5	0
5	5267	4	0
5	5279	4.5	0
5	5295	5	0
5	5306	5.5	0
5	5321	6	0
5	5332	6.5	0
5	5346	7	0
5	5358	7.5	0
5	5372	8	0
5	5384	8.5	0
5	5398	9	0
5	5409	9.5	0
5	5423	10	0
5	5435	10.5	0
5	5449	11	0
5	5461	11.5	0
5	5475	12	0
5	5486	12.5	0
5	5501	13	0
5	5512	13.5	0
5	5526	14	0
5	5537	14.5	0
5	5552	15	0
5	5562	15.5	0
5	5575	16	0
5	5585	16.5	0
5	5598	17	0
5	5608	17.5	0
5	5621	18	0
5	5631	18.5	0
5	5644	19	0
5	5655	19.5	0
5	5668	20	0
5	5678	20.5	0
5	5691	21	0
5	5701	21.5	0
5	5715	22	0
5	5725	22.5	0
5	5738	23	0
5	5748	23.5	0
5	5761	24	0
5	5771	24.5	0
5	5784	25	0
5	5794	25.5	0
5	5807	26	0
5	5817	26.5	0
5	5831	27	0
5	5842	27.5	0
5	5856	28	0
5	5866	28.5	0
5	5879	29	0
5	5889	29.5	0
5	5902	30	0
5	5913	30.5	0
5	5928	31	0
5	5938	31.5	0
5	5951	32	0
5	5961	32.5	0
5	5975	33	0
5	5985	33.5	0
5	5998	34	0
5	6008	34.5	0
5	6021	35	0
5	6031	35.5	0
5	6044	36	0
5	6054	36.5	0
5	6067	37	0
5	6077	37.5	0
5	6090	38	0
5	6100	38.5	0
5	6114	39	0
5	6124	39.5	0
5	6137	40	0
5	6147	40.5	0
5	6160	41	0
5	6171	41.5	0
5	6184	42	0
5	6195	42.5	0
5	6208	43	0
5	6218	43.5	0
5	6231	44	0
5	6241	44.5	0
5	6255	45	0
5	6265	45.5	0
5	6278	46	0
5	6288	46.5	0
5	6301	47	0
5	6313	47.5	0
5	6326	48	0
5	6337	48.5	0
5	6350	49	0
5	6360	49.5	0
5	6373	50	0
5	6383	50.5	0
5	6397	51	0
5	6407	51.5	0
5	6420	52	0
5	6430	52.5	0
5	6443	53	0
5	6453	53.5	0
5	6466	54	0
5	6476	54.5	0
5	6489	55	0
5	6500	55.5	0
5	6513	56	0
5	6524	56.5	0
5	6539	57	0
5	6549	57.5	0
5	6562	58	0
5	6572	58.5	0
5	6585	59	0
5	6595	59.5	0
5	6609	60	0
6	54	0.5	0
6	2977	1	3
6	4091	1.5	4
6	4119	2	4
6	5223	2.5	5
6	5239	3	5
6	5251	3.5	5
6	5267	4	5
6	5279	4.5	5
6	5295	5	5
6	5306	5.5	5
6	5321	6	5
6	5332	6.5	5
6	5346	7	5
6	5358	7.5	5
6	5372	8	5
6	5384	8.5	5
6	5398	9	5
6	5409	9.5	5
6	5423	10	5
6	5435	10.5	5
6	5449	11	5
6	5461	11.5	5
6	5475	12	5
6	5486	12.5	5
6	5501	13	5
6	5512	13.5	5
6	5526	14	5
6	5537	14.5	5
6	5552	15	5
6	5562	15.5	5
6	5575	16	5
6	5585	16.5	5
6	5598	17	5
6	5608	17.5	5
6	5621	18	5
6	5631	18.5	5
6	5644	19	5
6	5655	19.5	5
6	5668	20	5
6	5678	20.5	5
6	5691	21	5
6	5701	21.5	5
6	5715	22	5
6	5725	22.5	5
6	5738	23	5
6	5748	23.5	5
6	5761	24	5
6	5771	24.5	5
6	5784	25	5
6	5794	25.5	5
6	5807	26	5
6	5817	26.5	5
6	5831	27	5
6	5842	27.5	5
6	5856	28	5
6	5866	28.5	5
6	5879	29	5
6	5889	29.5	5
6	5902	30	5
6	5913	30.5	5
6	5928	31	5
6	5938	31.5	5
6	5951	32	5
6	5961	32.5	5
6	5975	33	5
6	5985	33.5	5
6	5998	34	5
6	6008	34.5	5
6	6021	35	5
6	6031	35.5	5
6	6044	36	5
6	6054	36.5	5
6	6067	37	5
6	6077	37.5	5
6	6090	38	5
6	6100	38.5	5
6	6114	39	5
6	6124	39.5	5
6	6137	40	5
6	6147	40.5	5
6	6160	41	5
6	6171	41.5	5
6	6184	42	5
6	6195	42.5	5
6	6208	43	5
6	6218	43.5	5
6	6231	44	5
6	6241	44.5	5
6	6255	45	5
6	6265	45.5	5
6	6278	46	5
6	6288	46.5	5
6	6301	47	5
6	6313	47.5	5
6	6326	48	5
6	6337	48.5	5
6	6350	49	5
6	6360	49.5	5
6	6373	50	5
6	6383	50.5	5
6	6397	51	5
6	6407	51.5	5
6	6420	52	5
6	6430	52.5	5
6	6443	53	5
6	6453	53.5	5
6	6466	54	5
6	6476	54.5	5
6	6489	55	5
6	6500	55.5	5
6	6513	56	5
6	6524	56.5	5
6	6539	57	5
6	6549	57.5	5
6	6562	58	5
6	6572	58.5	5
6	6585	59	5
6	6595	59.5	5
6	6609	60	5
7	54	0.5	0
7	2977	1	0
7	4091	1.5	0
7	4119	2	0
7	5223	2.5	0
7	5239	3	0
7	5251	3.5	0
7	5267	4	0
7	5279	4.5	0
7	5295	5	0
7	5306	5.5	0
7	5321	6	0
7	5332	6.5	0
7	5346	7	0
7	5358	7.5	0
7	5372	8	0
7	5384	8.5	0
7	5398	9	0
7	5409	9.5	0
7	5423	10	0
7	5435	10.5	0
7	5449	11	0
7	5461	11.5	0
7	5475	12	0
7	5486	12.5	0
7	5501	13	0
7	5512	13.5	0
7	5526	14	0
7	5537	14.5	0
7	5552	15	0
7	5562	15.5	0
7	5575	16	0
7	5585	16.5	0
7	5598	17	0
7	5608	17.5	0
7	5621	18	0
7	5631	18.5	0
7	5644	19	0
7	5655	19.5	0
7	5668	20	0
7	5678	20.5	0
7	5691	21	0
7	5701	21.5	0
7	5715	22	0
7	5725	22.5	0
7	5738	23	0
7	5748	23.5	0
7	5761	24	0
7	5771	24.5	0
7	5784	25	0
7	5794	25.5	0
7	5807	26	0
7	5817	26.5	0
7	5831	27	0
7	5842	27.5	0
7	5856	28	0
7	5866	28.5	0
7	5879	29	0
7	5889	29.5	0
7	5902	30	0
7	5913	30.5	0
7	5928	31	0
7	5938	31.5	0
7	5951	32	0
7	5961	32.5	0
7	5975	33	0
7	5985	33.5	0
7	5998	34	0
7	6008	34.5	0
7	6021	35	0
7	6031	35.5	0
7	6044	36	0
7	6054	36.5	0
7	6067	37	0
7	6077	37.5	0
7	6090	38	0
7	6100	38.5	0
7	6114	39	0
7	6124	39.5	0
7	6137	40	0
7	6147	40.5	0
7	6160	41	0
7	6171	41.5	0
7	6184	42	0
7	6195	42.5	0
7	6208	43	0
7	6218	43.5	0
7	6231	44	0
7	6241	44.5	0
7	6255	45	0
7	6265	45.5	0
7	6278	46	0
7	6288	46.5	0
7	6301	47	0
7	6313	47.5	0
7	6326	48	0
7	6337	48.5	0
7	6350	49	0
7	6360	49.5	0
7	6373	50	0
7	6383	50.5	0
7	6397	51	0
7	6407	51.5	0
7	6420	52	0
7	6430	52.5	0
7	6443	53	0
7	6453	53.5	0
7	6466	54	0
7	6476	54.5	0
7	6489	55	0
7	6500	55.5	0
7	6513	56	0
7	6524	56.5	0
7	6539	57	0
7	6549	57.5	0
7	6562	58	0
7	6572	58.5	0
7	6585	59	0
7	6595	59.5	0
7	6609	60	0
8	56	0.5	4
8	2978	1	113
8	4092	1.5	145
8	4120	2	145
8	5224	2.5	178
8	5240	3	178
8	5252	3.5	178
8	5268	4	178
8	5280	4.5	178
8	5296	5	178
8	5307	5.5	178
8	5322	6	178
8	5333	6.5	178
8	5347	7	178
8	5359	7.5	178
8	5373	8	178
8	5385	8.5	178
8	5399	9	178
8	5410	9.5	178
8	5424	10	178
8	5436	10.5	178
8	5450	11	178
8	5462	11.5	178
8	5476	12	178
8	5487	12.5	178
8	5502	13	178
8	5513	13.5	178
8	5527	14	178
8	5538	14.5	178
8	5553	15	178
8	5563	15.5	178
8	5576	16	178
8	5586	16.5	178
8	5599	17	178
8	5609	17.5	178
8	5622	18	178
8	5632	18.5	178
8	5645	19	178
8	5656	19.5	178
8	5669	20	178
8	5679	20.5	178
8	5692	21	178
8	5702	21.5	178
8	5716	22	178
8	5726	22.5	178
8	5739	23	178
8	5749	23.5	178
8	5762	24	178
8	5772	24.5	178
8	5785	25	178
8	5795	25.5	178
8	5808	26	178
8	5818	26.5	178
8	5832	27	178
8	5843	27.5	178
8	5857	28	178
8	5867	28.5	178
8	5880	29	178
8	5890	29.5	178
8	5903	30	178
8	5914	30.5	178
8	5929	31	178
8	5939	31.5	178
8	5952	32	178
8	5962	32.5	178
8	5976	33	178
8	5986	33.5	178
8	5999	34	178
8	6009	34.5	178
8	6022	35	178
8	6032	35.5	178
8	6045	36	178
8	6055	36.5	178
8	6068	37	178
8	6078	37.5	178
8	6091	38	178
8	6101	38.5	178
8	6115	39	178
8	6125	39.5	178
8	6138	40	178
8	6148	40.5	178
8	6161	41	178
8	6172	41.5	178
8	6185	42	178
8	6196	42.5	178
8	6209	43	178
8	6219	43.5	178
8	6232	44	178
8	6242	44.5	178
8	6256	45	178
8	6266	45.5	178
8	6279	46	178
8	6289	46.5	178
8	6302	47	178
8	6314	47.5	178
8	6327	48	178
8	6338	48.5	178
8	6351	49	178
8	6361	49.5	178
8	6374	50	178
8	6384	50.5	178
8	6398	51	178
8	6408	51.5	178
8	6421	52	178
8	6431	52.5	178
8	6444	53	178
8	6454	53.5	178
8	6467	54	178
8	6477	54.5	178
8	6490	55	178
8	6501	55.5	178
8	6514	56	178
8	6525	56.5	178
8	6540	57	178
8	6550	57.5	178
8	6563	58	178
8	6573	58.5	178
8	6586	59	178
8	6596	59.5	178
8	6610	60	178
9	56	0.5	0
9	2978	1	0
9	4092	1.5	0
9	4120	2	0
9	5224	2.5	0
9	5240	3	0
9	5252	3.5	0
9	5268	4	0
9	5280	4.5	0
9	5296	5	0
9	5307	5.5	0
9	5322	6	0
9	5333	6.5	0
9	5347	7	0
9	5359	7.5	0
9	5373	8	0
9	5385	8.5	0
9	5399	9	0
9	5410	9.5	0
9	5424	10	0
9	5436	10.5	0
9	5450	11	0
9	5462	11.5	0
9	5476	12	0
9	5487	12.5	0
9	5502	13	0
9	5513	13.5	0
9	5527	14	0
9	5538	14.5	0
9	5553	15	0
9	5563	15.5	0
9	5576	16	0
9	5586	16.5	0
9	5599	17	0
9	5609	17.5	0
9	5622	18	0
9	5632	18.5	0
9	5645	19	0
9	5656	19.5	0
9	5669	20	0
9	5679	20.5	0
9	5692	21	0
9	5702	21.5	0
9	5716	22	0
9	5726	22.5	0
9	5739	23	0
9	5749	23.5	0
9	5762	24	0
9	5772	24.5	0
9	5785	25	0
9	5795	25.5	0
9	5808	26	0
9	5818	26.5	0
9	5832	27	0
9	5843	27.5	0
9	5857	28	0
9	5867	28.5	0
9	5880	29	0
9	5890	29.5	0
9	5903	30	0
9	5914	30.5	0
9	5929	31	0
9	5939	31.5	0
9	5952	32	0
9	5962	32.5	0
9	5976	33	0
9	5986	33.5	0
9	5999	34	0
9	6009	34.5	0
9	6022	35	0
9	6032	35.5	0
9	6045	36	0
9	6055	36.5	0
9	6068	37	0
9	6078	37.5	0
9	6091	38	0
9	6101	38.5	0
9	6115	39	0
9	6125	39.5	0
9	6138	40	0
9	6148	40.5	0
9	6161	41	0
9	6172	41.5	0
9	6185	42	0
9	6196	42.5	0
9	6209	43	0
9	6219	43.5	0
9	6232	44	0
9	6242	44.5	0
9	6256	45	0
9	6266	45.5	0
9	6279	46	0
9	6289	46.5	0
9	6302	47	0
9	6314	47.5	0
9	6327	48	0
9	6338	48.5	0
9	6351	49	0
9	6361	49.5	0
9	6374	50	0
9	6384	50.5	0
9	6398	51	0
9	6408	51.5	0
9	6421	52	0
9	6431	52.5	0
9	6444	53	0
9	6454	53.5	0
9	6467	54	0
9	6477	54.5	0
9	6490	55	0
9	6501	55.5	0
9	6514	56	0
9	6525	56.5	0
9	6540	57	0
9	6550	57.5	0
9	6563	58	0
9	6573	58.5	0
9	6586	59	0
9	6596	59.5	0
9	6610	60	0
10	56	0.5	0
10	2978	1	3
10	4092	1.5	4
10	4120	2	4
10	5224	2.5	4
10	5240	3	4
10	5252	3.5	4
10	5268	4	4
10	5280	4.5	4
10	5296	5	4
10	5307	5.5	4
10	5322	6	4
10	5333	6.5	4
10	5347	7	4
10	5359	7.5	4
10	5373	8	4
10	5385	8.5	4
10	5399	9	4
10	5410	9.5	4
10	5424	10	4
10	5436	10.5	4
10	5450	11	4
10	5462	11.5	4
10	5476	12	4
10	5487	12.5	4
10	5502	13	4
10	5513	13.5	4
10	5527	14	4
10	5538	14.5	4
10	5553	15	4
10	5563	15.5	4
10	5576	16	4
10	5586	16.5	4
10	5599	17	4
10	5609	17.5	4
10	5622	18	4
10	5632	18.5	4
10	5645	19	4
10	5656	19.5	4
10	5669	20	4
10	5679	20.5	4
10	5692	21	4
10	5702	21.5	4
10	5716	22	4
10	5726	22.5	4
10	5739	23	4
10	5749	23.5	4
10	5762	24	4
10	5772	24.5	4
10	5785	25	4
10	5795	25.5	4
10	5808	26	4
10	5818	26.5	4
10	5832	27	4
10	5843	27.5	4
10	5857	28	4
10	5867	28.5	4
10	5880	29	4
10	5890	29.5	4
10	5903	30	4
10	5914	30.5	4
10	5929	31	4
10	5939	31.5	4
10	5952	32	4
10	5962	32.5	4
10	5976	33	4
10	5986	33.5	4
10	5999	34	4
10	6009	34.5	4
10	6022	35	4
10	6032	35.5	4
10	6045	36	4
10	6055	36.5	4
10	6068	37	4
10	6078	37.5	4
10	6091	38	4
10	6101	38.5	4
10	6115	39	4
10	6125	39.5	4
10	6138	40	4
10	6148	40.5	4
10	6161	41	4
10	6172	41.5	4
10	6185	42	4
10	6196	42.5	4
10	6209	43	4
10	6219	43.5	4
10	6232	44	4
10	6242	44.5	4
10	6256	45	4
10	6266	45.5	4
10	6279	46	4
10	6289	46.5	4
10	6302	47	4
10	6314	47.5	4
10	6327	48	4
10	6338	48.5	4
10	6351	49	4
10	6361	49.5	4
10	6374	50	4
10	6384	50.5	4
10	6398	51	4
10	6408	51.5	4
10	6421	52	4
10	6431	52.5	4
10	6444	53	4
10	6454	53.5	4
10	6467	54	4
10	6477	54.5	4
10	6490	55	4
10	6501	55.5	4
10	6514	56	4
10	6525	56.5	4
10	6540	57	4
10	6550	57.5	4
10	6563	58	4
10	6573	58.5	4
10	6586	59	4
10	6596	59.5	4
10	6610	60	4
11	56	0.5	0
11	2978	1	0
11	4092	1.5	0
11	4120	2	0
11	5224	2.5	0
11	5240	3	0
11	5252	3.5	0
11	5268	4	0
11	5280	4.5	0
11	5296	5	0
11	5307	5.5	0
11	5322	6	0
11	5333	6.5	0
11	5347	7	0
11	5359	7.5	0
11	5373	8	0
11	5385	8.5	0
11	5399	9	0
11	5410	9.5	0
11	5424	10	0
11	5436	10.5	0
11	5450	11	0
11	5462	11.5	0
11	5476	12	0
11	5487	12.5	0
11	5502	13	0
11	5513	13.5	0
11	5527	14	0
11	5538	14.5	0
11	5553	15	0
11	5563	15.5	0
11	5576	16	0
11	5586	16.5	0
11	5599	17	0
11	5609	17.5	0
11	5622	18	0
11	5632	18.5	0
11	5645	19	0
11	5656	19.5	0
11	5669	20	0
11	5679	20.5	0
11	5692	21	0
11	5702	21.5	0
11	5716	22	0
11	5726	22.5	0
11	5739	23	0
11	5749	23.5	0
11	5762	24	0
11	5772	24.5	0
11	5785	25	0
11	5795	25.5	0
11	5808	26	0
11	5818	26.5	0
11	5832	27	0
11	5843	27.5	0
11	5857	28	0
11	5867	28.5	0
11	5880	29	0
11	5890	29.5	0
11	5903	30	0
11	5914	30.5	0
11	5929	31	0
11	5939	31.5	0
11	5952	32	0
11	5962	32.5	0
11	5976	33	0
11	5986	33.5	0
11	5999	34	0
11	6009	34.5	0
11	6022	35	0
11	6032	35.5	0
11	6045	36	0
11	6055	36.5	0
11	6068	37	0
11	6078	37.5	0
11	6091	38	0
11	6101	38.5	0
11	6115	39	0
11	6125	39.5	0
11	6138	40	0
11	6148	40.5	0
11	6161	41	0
11	6172	41.5	0
11	6185	42	0
11	6196	42.5	0
11	6209	43	0
11	6219	43.5	0
11	6232	44	0
11	6242	44.5	0
11	6256	45	0
11	6266	45.5	0
11	6279	46	0
11	6289	46.5	0
11	6302	47	0
11	6314	47.5	0
11	6327	48	0
11	6338	48.5	0
11	6351	49	0
11	6361	49.5	0
11	6374	50	0
11	6384	50.5	0
11	6398	51	0
11	6408	51.5	0
11	6421	52	0
11	6431	52.5	0
11	6444	53	0
11	6454	53.5	0
11	6467	54	0
11	6477	54.5	0
11	6490	55	0
11	6501	55.5	0
11	6514	56	0
11	6525	56.5	0
11	6540	57	0
11	6550	57.5	0
11	6563	58	0
11	6573	58.5	0
11	6586	59	0
11	6596	59.5	0
11	6610	60	0
12	58	0.5	5
12	2979	1	128
12	4093	1.5	181
12	4121	2	181
12	5225	2.5	234
12	5241	3	234
12	5253	3.5	234
12	5269	4	234
12	5281	4.5	234
13	58	0.5	0
13	2979	1	0
13	4093	1.5	0
13	4121	2	0
13	5225	2.5	0
13	5241	3	0
13	5253	3.5	0
13	5269	4	0
13	5281	4.5	0
14	58	0.5	0
14	2979	1	2
14	4093	1.5	4
14	4121	2	4
14	5225	2.5	6
14	5241	3	6
14	5253	3.5	6
14	5269	4	6
14	5281	4.5	6
15	58	0.5	0
15	2979	1	0
15	4093	1.5	0
15	4121	2	0
15	5225	2.5	0
15	5241	3	0
15	5253	3.5	0
15	5269	4	0
15	5281	4.5	0
16	60	0.5	4
16	2980	1	137
16	4094	1.5	180
16	4122	2	180
16	5226	2.5	224
16	5242	3	224
16	5254	3.5	224
16	5270	4	224
16	5282	4.5	224
16	5297	5	224
16	5308	5.5	224
16	5323	6	224
16	5334	6.5	224
16	5348	7	224
16	5360	7.5	224
16	5374	8	224
16	5386	8.5	224
16	5400	9	224
16	5411	9.5	224
16	5425	10	224
16	5437	10.5	224
16	5451	11	224
16	5463	11.5	224
16	5477	12	224
16	5488	12.5	224
16	5503	13	224
16	5514	13.5	224
16	5528	14	224
16	5539	14.5	224
16	5554	15	224
16	5564	15.5	224
16	5577	16	224
16	5587	16.5	224
16	5600	17	224
16	5610	17.5	224
16	5623	18	224
16	5633	18.5	224
16	5646	19	224
16	5657	19.5	224
16	5670	20	224
16	5680	20.5	224
16	5693	21	224
16	5703	21.5	224
16	5717	22	224
16	5727	22.5	224
16	5740	23	224
16	5750	23.5	224
16	5763	24	224
16	5773	24.5	224
16	5786	25	224
16	5796	25.5	224
16	5809	26	224
16	5819	26.5	224
16	5833	27	224
16	5844	27.5	224
16	5858	28	224
16	5868	28.5	224
16	5881	29	224
16	5891	29.5	224
16	5904	30	224
16	5915	30.5	224
16	5930	31	224
16	5940	31.5	224
16	5953	32	224
16	5963	32.5	224
16	5977	33	224
16	5987	33.5	224
16	6000	34	224
16	6010	34.5	224
16	6023	35	224
16	6033	35.5	224
16	6046	36	224
16	6056	36.5	224
16	6069	37	224
16	6079	37.5	224
16	6092	38	224
16	6102	38.5	224
16	6116	39	224
16	6126	39.5	224
16	6139	40	224
16	6149	40.5	224
16	6162	41	224
16	6173	41.5	224
16	6186	42	224
16	6197	42.5	224
16	6210	43	224
16	6220	43.5	224
16	6233	44	224
16	6243	44.5	224
16	6257	45	224
16	6267	45.5	224
16	6280	46	224
16	6290	46.5	224
16	6303	47	224
16	6315	47.5	224
16	6328	48	224
16	6339	48.5	224
16	6352	49	224
16	6362	49.5	224
16	6375	50	224
16	6385	50.5	224
16	6399	51	224
16	6409	51.5	224
16	6422	52	224
16	6432	52.5	224
16	6445	53	224
16	6455	53.5	224
16	6468	54	224
16	6478	54.5	224
16	6491	55	224
16	6502	55.5	224
16	6515	56	224
16	6526	56.5	224
16	6541	57	224
16	6551	57.5	224
16	6564	58	224
16	6574	58.5	224
16	6587	59	224
16	6597	59.5	224
16	6611	60	224
17	60	0.5	0
17	2980	1	0
17	4094	1.5	0
17	4122	2	0
17	5226	2.5	0
17	5242	3	0
17	5254	3.5	0
17	5270	4	0
17	5282	4.5	0
17	5297	5	0
17	5308	5.5	0
17	5323	6	0
17	5334	6.5	0
17	5348	7	0
17	5360	7.5	0
17	5374	8	0
17	5386	8.5	0
17	5400	9	0
17	5411	9.5	0
17	5425	10	0
17	5437	10.5	0
17	5451	11	0
17	5463	11.5	0
17	5477	12	0
17	5488	12.5	0
17	5503	13	0
17	5514	13.5	0
17	5528	14	0
17	5539	14.5	0
17	5554	15	0
17	5564	15.5	0
17	5577	16	0
17	5587	16.5	0
17	5600	17	0
17	5610	17.5	0
17	5623	18	0
17	5633	18.5	0
17	5646	19	0
17	5657	19.5	0
17	5670	20	0
17	5680	20.5	0
17	5693	21	0
17	5703	21.5	0
17	5717	22	0
17	5727	22.5	0
17	5740	23	0
17	5750	23.5	0
17	5763	24	0
17	5773	24.5	0
17	5786	25	0
17	5796	25.5	0
17	5809	26	0
17	5819	26.5	0
17	5833	27	0
17	5844	27.5	0
17	5858	28	0
17	5868	28.5	0
17	5881	29	0
17	5891	29.5	0
17	5904	30	0
17	5915	30.5	0
17	5930	31	0
17	5940	31.5	0
17	5953	32	0
17	5963	32.5	0
17	5977	33	0
17	5987	33.5	0
17	6000	34	0
17	6010	34.5	0
17	6023	35	0
17	6033	35.5	0
17	6046	36	0
17	6056	36.5	0
17	6069	37	0
17	6079	37.5	0
17	6092	38	0
17	6102	38.5	0
17	6116	39	0
17	6126	39.5	0
17	6139	40	0
17	6149	40.5	0
17	6162	41	0
17	6173	41.5	0
17	6186	42	0
17	6197	42.5	0
17	6210	43	0
17	6220	43.5	0
17	6233	44	0
17	6243	44.5	0
17	6257	45	0
17	6267	45.5	0
17	6280	46	0
17	6290	46.5	0
17	6303	47	0
17	6315	47.5	0
17	6328	48	0
17	6339	48.5	0
17	6352	49	0
17	6362	49.5	0
17	6375	50	0
17	6385	50.5	0
17	6399	51	0
17	6409	51.5	0
17	6422	52	0
17	6432	52.5	0
17	6445	53	0
17	6455	53.5	0
17	6468	54	0
17	6478	54.5	0
17	6491	55	0
17	6502	55.5	0
17	6515	56	0
17	6526	56.5	0
17	6541	57	0
17	6551	57.5	0
17	6564	58	0
17	6574	58.5	0
17	6587	59	0
17	6597	59.5	0
17	6611	60	0
18	60	0.5	0
18	2980	1	3
18	4094	1.5	4
18	4122	2	4
18	5226	2.5	4
18	5242	3	4
18	5254	3.5	4
18	5270	4	4
18	5282	4.5	4
18	5297	5	4
18	5308	5.5	4
18	5323	6	4
18	5334	6.5	4
18	5348	7	4
18	5360	7.5	4
18	5374	8	4
18	5386	8.5	4
18	5400	9	4
18	5411	9.5	4
18	5425	10	4
18	5437	10.5	4
18	5451	11	4
18	5463	11.5	4
18	5477	12	4
18	5488	12.5	4
18	5503	13	4
18	5514	13.5	4
18	5528	14	4
18	5539	14.5	4
18	5554	15	4
18	5564	15.5	4
18	5577	16	4
18	5587	16.5	4
18	5600	17	4
18	5610	17.5	4
18	5623	18	4
18	5633	18.5	4
18	5646	19	4
18	5657	19.5	4
18	5670	20	4
18	5680	20.5	4
18	5693	21	4
18	5703	21.5	4
18	5717	22	4
18	5727	22.5	4
18	5740	23	4
18	5750	23.5	4
18	5763	24	4
18	5773	24.5	4
18	5786	25	4
18	5796	25.5	4
18	5809	26	4
18	5819	26.5	4
18	5833	27	4
18	5844	27.5	4
18	5858	28	4
18	5868	28.5	4
18	5881	29	4
18	5891	29.5	4
18	5904	30	4
18	5915	30.5	4
18	5930	31	4
18	5940	31.5	4
18	5953	32	4
18	5963	32.5	4
18	5977	33	4
18	5987	33.5	4
18	6000	34	4
18	6010	34.5	4
18	6023	35	4
18	6033	35.5	4
18	6046	36	4
18	6056	36.5	4
18	6069	37	4
18	6079	37.5	4
18	6092	38	4
18	6102	38.5	4
18	6116	39	4
18	6126	39.5	4
18	6139	40	4
18	6149	40.5	4
18	6162	41	4
18	6173	41.5	4
18	6186	42	4
18	6197	42.5	4
18	6210	43	4
18	6220	43.5	4
18	6233	44	4
18	6243	44.5	4
18	6257	45	4
18	6267	45.5	4
18	6280	46	4
18	6290	46.5	4
18	6303	47	4
18	6315	47.5	4
18	6328	48	4
18	6339	48.5	4
18	6352	49	4
18	6362	49.5	4
18	6375	50	4
18	6385	50.5	4
18	6399	51	4
18	6409	51.5	4
18	6422	52	4
18	6432	52.5	4
18	6445	53	4
18	6455	53.5	4
18	6468	54	4
18	6478	54.5	4
18	6491	55	4
18	6502	55.5	4
18	6515	56	4
18	6526	56.5	4
18	6541	57	4
18	6551	57.5	4
18	6564	58	4
18	6574	58.5	4
18	6587	59	4
18	6597	59.5	4
18	6611	60	4
19	60	0.5	0
19	2980	1	0
19	4094	1.5	0
19	4122	2	0
19	5226	2.5	0
19	5242	3	0
19	5254	3.5	0
19	5270	4	0
19	5282	4.5	0
19	5297	5	0
19	5308	5.5	0
19	5323	6	0
19	5334	6.5	0
19	5348	7	0
19	5360	7.5	0
19	5374	8	0
19	5386	8.5	0
19	5400	9	0
19	5411	9.5	0
19	5425	10	0
19	5437	10.5	0
19	5451	11	0
19	5463	11.5	0
19	5477	12	0
19	5488	12.5	0
19	5503	13	0
19	5514	13.5	0
19	5528	14	0
19	5539	14.5	0
19	5554	15	0
19	5564	15.5	0
19	5577	16	0
19	5587	16.5	0
19	5600	17	0
19	5610	17.5	0
19	5623	18	0
19	5633	18.5	0
19	5646	19	0
19	5657	19.5	0
19	5670	20	0
19	5680	20.5	0
19	5693	21	0
19	5703	21.5	0
19	5717	22	0
19	5727	22.5	0
19	5740	23	0
19	5750	23.5	0
19	5763	24	0
19	5773	24.5	0
19	5786	25	0
19	5796	25.5	0
19	5809	26	0
19	5819	26.5	0
19	5833	27	0
19	5844	27.5	0
19	5858	28	0
19	5868	28.5	0
19	5881	29	0
19	5891	29.5	0
19	5904	30	0
19	5915	30.5	0
19	5930	31	0